# Time	1	2	29	30	31	32	33	34	4	35	53	5	78	79	80	81	82	83	84	85	86	87	89	90	91	7	92	36	56	49	88	12	93	94	95	37	96	38	97	39	98	99	100	3	6	16	17	18	19	20	21	22	23	24	25	26	27	28	44	45	46	13	47	14	48	15	50	51	57	52	40	65	58	41	66	42	67	68	43	69	59	70	71	60	72	61	73	74	62	8	9	10	11	54	55	75	76	77	63	64
0.0314159265358979	3.99363774503649	1.27947149422353	3.62164094845955	6.11332664871069	0.861796733937538	4.57662033846689	4.25017107285348	2.59292544180955	0.804434810457545	2.58989884385462	1.53111900087569	2.29459183895773	5.05784867906885	1.02929053980479	3.05288356721983	4.7311212570127	3.30247294204322	3.75230110821163	4.30226999094483	2.87226664149166	2.71608670992579	3.96191859982109	4.00214231184597	1.19583087775117	2.86616812039726	2.79908665849861	3.26264797045849	5.80720563481323	2.18931933944526	3.52776489767359	6.10332350227806	5.37820238435918	4.59105814281146	2.91548161043456	2.01077862122103	2.06645935310203	3.55861066040254	2.94927466427491	0.191453930709615	4.74150310223539	4.96844398057546	4.05585943090342	5.10386622824222	3.72251063816626	4.27827709624879	0.765843049021507	0.106363986463913	0.289559088520552	1.13742132406021	4.42120268600472	3.42007442581425	2.26004262754092	5.98396651407891	-0.155952973535221	3.62261453153784	2.72827688332059	3.80074578908124	4.83232974306018	2.09269055137271	1.50423219574717	4.5971262874224	4.97973526725752	4.85331333930776	1.63974085566091	4.35211766879735	0.488456015590899	1.36096466155284	-0.0544549603762449	3.44128953789219	1.4842426336978	0.101317391861654	2.05310770614575	2.55900265292913	3.80853067996756	4.76900668941207	5.9802954308241	2.31108709882167	4.92442901718188	3.95748997781797	2.54134969296287	3.04695816569474	3.62691746261327	0.832594697292439	4.92890898511477	3.27752781519492	3.82225646095181	4.64457937837687	5.7410004769117	5.13890870591013	5.32721472496115	4.267495706641	4.46012044851125	0.85687151228045	5.04347346981179	-0.00415428970857779	6.04070449843408	4.98047669859553	4.00677076860982	5.21883125962996	3.92645619374884
0.0628318530717959	4.02837395072514	1.39152398276103	3.74927373418124	5.86716854131566	0.889961825404744	4.44975243710702	4.21430728141347	2.91960468308208	0.813993411403992	2.92846601279374	1.77385358771088	2.44690279183836	4.83217529169385	1.106391795576	3.31891654728359	4.57568661104954	3.51302499962277	3.85128988747137	4.246398239968	3.17127065548455	3.03736472603528	4.00813614692996	4.03361066048547	1.34415428822304	3.16069689049448	2.71788140385839	3.47649861079367	5.53474634307646	2.46393197533534	3.63750593262677	5.9332989099968	5.10388224894578	4.46486846677336	3.15039199602601	2.34305332748094	2.4005494328556	3.7102463923081	3.23559555114447	0.0928895520530091	4.58395800220085	4.76825826936833	4.07360425989072	4.86777035904332	3.82562209241804	4.17647890724697	0.759676710830692	-0.107536701267447	0.130819897670659	1.26294007464089	4.34152154171068	3.5962261765986	2.59408021230286	5.7099140573017	-0.40073423583854	3.75856190988173	3.04317811243567	3.88174148313077	4.65738168010824	2.42520118847035	1.74446668681198	4.46784690126302	4.7799151506663	4.66407937534686	1.92083076121266	4.28989962855377	0.379456193842894	1.57604798921812	-0.293153826266747	3.61695999463499	1.73468344279172	-0.109038922262238	2.38982566917471	2.89382496890776	3.89530579027235	4.60559869490133	5.7146841671581	2.65248371865951	4.73024278559547	4.00432809805501	2.86952353045663	3.31501646807602	3.73146371204767	0.847044757008282	4.73379522164619	3.49837355323313	3.89927353603309	4.51044643153118	5.45358852208854	4.90390415947389	5.06658894826633	4.2209899871548	4.36560788385569	0.877393995782766	4.82990266067684	-0.230128726255046	5.76766742640268	4.77127543558642	4.04114443233823	5.02249952617098	3.97329829179408
0.0942477796076938	4.06211262857364	1.523183557104	3.85276074773957	5.59709713797343	0.915555445286936	4.36302338490319	4.19721502490329	3.2087737357754	0.814143910103299	3.22738464416325	2.06143825955665	2.54858439534512	4.65690310213354	1.19853583477065	3.53636214956693	4.46474675872175	3.681766220038	3.93323443641016	4.21446233112697	3.42177116694367	3.31403203391566	4.05129534160235	4.06599607498691	1.52913070621726	3.40806244096613	2.70658210983358	3.64856165698059	5.26823105140854	2.69424128474627	3.78676329051061	5.69605386279648	4.87161237846066	4.37840823979135	3.38745867563457	2.6858693343321	2.7398484648798	3.8318203813886	3.47269531600149	-0.117644498176665	4.47119487669195	4.61624538213564	4.09596133881493	4.68226767595957	3.88165093752385	4.11681936966756	0.738418655371043	-0.316078857698954	-0.0770876784664265	1.41901858245003	4.29136687924213	3.73742775833925	2.91580692688846	5.42513579483981	-0.670690576992709	3.86814399534967	3.31408523834435	3.9504205736138	4.52913073365875	2.76061468515255	2.0307762977859	4.37900510013148	4.62773000055983	4.52446905552356	2.24391244520953	4.25305207477412	0.22523610181938	1.83990572699259	-0.565958748234264	3.75751425680979	2.03404957522489	-0.364306822373248	2.73280648319114	3.19200012716164	3.96819900725166	4.48776589384876	5.43817824711002	2.97611863168103	4.58444585878082	4.04794084212737	3.16361280596061	3.53421435598463	3.84568489677684	0.860324851330352	4.58713311191686	3.67530475590419	3.96501233723665	4.41717185385764	5.18012910316113	4.71741051169815	4.84875426827186	4.19605228974337	4.30419610979243	0.892524666847774	4.6645303631601	-0.493916347686416	5.47830384775945	4.63969144261501	4.07565197473243	4.819773928292	4.01691733433939
